<PP_INFO>
Generated using atom-recip-ver2.3 (QTP version)                                 
Author: VVK                                                                     
Inv. Fourier-Bessel tranfr. of Eq. (44) PRB 86, 115101 (2012)                   
    0        The Pseudo was generated with a Non-Relativistic Calculation
</PP_INFO>


<PP_HEADER>
   0                   Version Number
   H                   Element
   NC                  Norm - Conserving pseudopotential
    F                  Nonlinear Core Correction
SLA PZ NOGXC NOGCC     PZ   Exchange-Correlation functional
    1.00000000000      Z valence
    0.00000000000      Total energy
    0.00000    0.00000 Suggested cutoff for wfc and rho
   -1                  Max angular momentum component
  863                  Number of points in mesh
    0    0             Number of Wavefunctions, Number of Projectors
</PP_HEADER>


<PP_MESH>
  <PP_R>
  3.11788641354E-05  6.27499101025E-05  9.47180709413E-05  1.27088341742E-04
  1.59865780426E-04  1.93055508533E-04  2.26662712027E-04  2.60692642102E-04
  2.95150616003E-04  3.30042017859E-04  3.65372299523E-04  4.01146981422E-04
  4.37371653424E-04  4.74051975707E-04  5.11193679647E-04  5.48802568709E-04
  5.86884519361E-04  6.25445481983E-04  6.64491481805E-04  7.04028619843E-04
  7.44063073857E-04  7.84601099310E-04  8.25649030352E-04  8.67213280805E-04
  9.09300345168E-04  9.51916799631E-04  9.95069303102E-04  1.03876459825E-03
  1.08300951254E-03  1.12781095935E-03  1.17317593898E-03  1.21911153982E-03
  1.26562493938E-03  1.31272340548E-03  1.36041429736E-03  1.40870506681E-03
  1.45760325936E-03  1.50711651546E-03  1.55725257165E-03  1.60801926180E-03
  1.65942451829E-03  1.71147637332E-03  1.76418296008E-03  1.81755251409E-03
  1.87159337444E-03  1.92631398514E-03  1.98172289639E-03  2.03782876595E-03
  2.09464036046E-03  2.15216655687E-03  2.21041634375E-03  2.26939882275E-03
  2.32912321000E-03  2.38959883756E-03  2.45083515488E-03  2.51284173024E-03
  2.57562825231E-03  2.63920453161E-03  2.70358050205E-03  2.76876622252E-03
  2.83477187841E-03  2.90160778324E-03  2.96928438027E-03  3.03781224409E-03
  3.10720208233E-03  3.17746473729E-03  3.24861118764E-03  3.32065255018E-03
  3.39360008150E-03  3.46746517981E-03  3.54225938667E-03  3.61799438885E-03
  3.69468202008E-03  3.77233426296E-03  3.85096325082E-03  3.93058126959E-03
  4.01120075975E-03  4.09283431826E-03  4.17549470053E-03  4.25919482242E-03
  4.34394776223E-03  4.42976676279E-03  4.51666523349E-03  4.60465675239E-03
  4.69375506834E-03  4.78397410315E-03  4.87532795371E-03  4.96783089426E-03
  5.06149737856E-03  5.15634204219E-03  5.25237970483E-03  5.34962537256E-03
  5.44809424020E-03  5.54780169373E-03  5.64876331263E-03  5.75099487235E-03
  5.85451234680E-03  5.95933191079E-03  6.06546994257E-03  6.17294302645E-03
  6.28176795531E-03  6.39196173326E-03  6.50354157831E-03  6.61652492503E-03
  6.73092942730E-03  6.84677296106E-03  6.96407362710E-03  7.08284975388E-03
  7.20311990041E-03  7.32490285916E-03  7.44821765894E-03  7.57308356797E-03
  7.69952009678E-03  7.82754700133E-03  7.95718428611E-03  8.08845220719E-03
  8.22137127545E-03  8.35596225977E-03  8.49224619027E-03  8.63024436158E-03
  8.76997833620E-03  8.91146994785E-03  9.05474130488E-03  9.19981479373E-03
  9.34671308243E-03  9.49545912414E-03  9.64607616072E-03  9.79858772640E-03
  9.95301765142E-03  1.01093900658E-02  1.02677294030E-02  1.04280604038E-02
  1.05904081204E-02  1.07547979199E-02  1.09212554885E-02  1.10898068355E-02
  1.12604782975E-02  1.14332965423E-02  1.16082885729E-02  1.17854817323E-02
  1.19649037073E-02  1.21465825329E-02  1.23305465968E-02  1.25168246438E-02
  1.27054457802E-02  1.28964394784E-02  1.30898355815E-02  1.32856643082E-02
  1.34839562570E-02  1.36847424115E-02  1.38880541449E-02  1.40939232251E-02
  1.43023818195E-02  1.45134625003E-02  1.47271982492E-02  1.49436224628E-02
  1.51627689580E-02  1.53846719766E-02  1.56093661917E-02  1.58368867121E-02
  1.60672690883E-02  1.63005493180E-02  1.65367638518E-02  1.67759495987E-02
  1.70181439319E-02  1.72633846948E-02  1.75117102068E-02  1.77631592691E-02
  1.80177711713E-02  1.82755856970E-02  1.85366431302E-02  1.88009842617E-02
  1.90686503953E-02  1.93396833544E-02  1.96141254884E-02  1.98920196795E-02
  2.01734093492E-02  2.04583384653E-02  2.07468515484E-02  2.10389936793E-02
  2.13348105059E-02  2.16343482502E-02  2.19376537154E-02  2.22447742937E-02
  2.25557579733E-02  2.28706533461E-02  2.31895096150E-02  2.35123766021E-02
  2.38393047559E-02  2.41703451597E-02  2.45055495391E-02  2.48449702706E-02
  2.51886603893E-02  2.55366735976E-02  2.58890642730E-02  2.62458874776E-02
  2.66071989655E-02  2.69730551924E-02  2.73435133242E-02  2.77186312457E-02
  2.80984675697E-02  2.84830816465E-02  2.88725335729E-02  2.92668842014E-02
  2.96661951502E-02  3.00705288124E-02  3.04799483660E-02  3.08945177837E-02
  3.13143018426E-02  3.17393661350E-02  3.21697770780E-02  3.26056019242E-02
  3.30469087721E-02  3.34937665768E-02  3.39462451607E-02  3.44044152246E-02
  3.48683483584E-02  3.53381170527E-02  3.58137947097E-02  3.62954556551E-02
  3.67831751493E-02  3.72770293996E-02  3.77770955716E-02  3.82834518017E-02
  3.87961772091E-02  3.93153519083E-02  3.98410570212E-02  4.03733746904E-02
  4.09123880916E-02  4.14581814467E-02  4.20108400372E-02  4.25704502169E-02
  4.31370994261E-02  4.37108762050E-02  4.42918702073E-02  4.48801722145E-02
  4.54758741499E-02  4.60790690933E-02  4.66898512951E-02  4.73083161912E-02
  4.79345604180E-02  4.85686818275E-02  4.92107795024E-02  4.98609537718E-02
  5.05193062267E-02  5.11859397361E-02  5.18609584627E-02  5.25444678797E-02
  5.32365747868E-02  5.39373873271E-02  5.46470150040E-02  5.53655686982E-02
  5.60931606852E-02  5.68299046528E-02  5.75759157186E-02  5.83313104486E-02
  5.90962068745E-02  5.98707245130E-02  6.06549843841E-02  6.14491090300E-02
  6.22532225343E-02  6.30674505414E-02  6.38919202759E-02  6.47267605631E-02
  6.55721018483E-02  6.64280762180E-02  6.72948174198E-02  6.81724608838E-02
  6.90611437435E-02  6.99610048576E-02  7.08721848311E-02  7.17948260377E-02
  7.27290726420E-02  7.36750706219E-02  7.46329677917E-02  7.56029138245E-02
  7.65850602765E-02  7.75795606101E-02  7.85865702179E-02  7.96062464472E-02
  8.06387486246E-02  8.16842380806E-02  8.27428781751E-02  8.38148343227E-02
  8.49002740188E-02  8.59993668654E-02  8.71122845982E-02  8.82392011127E-02
  8.93802924921E-02  9.05357370340E-02  9.17057152791E-02  9.28904100389E-02
  9.40900064243E-02  9.53046918747E-02  9.65346561872E-02  9.77800915461E-02
  9.90411925534E-02  1.00318156259E-01  1.01611182190E-01  1.02920472385E-01
  1.04246231424E-01  1.05588666458E-01  1.06947987247E-01  1.08324406186E-01
  1.09718138344E-01  1.11129401494E-01  1.12558416150E-01  1.14005405597E-01
  1.15470595931E-01  1.16954216090E-01  1.18456497894E-01  1.19977676076E-01
  1.21517988325E-01  1.23077675317E-01  1.24656980755E-01  1.26256151411E-01
  1.27875437158E-01  1.29515091011E-01  1.31175369171E-01  1.32856531060E-01
  1.34558839362E-01  1.36282560066E-01  1.38027962508E-01  1.39795319410E-01
  1.41584906925E-01  1.43397004680E-01  1.45231895818E-01  1.47089867046E-01
  1.48971208675E-01  1.50876214668E-01  1.52805182687E-01  1.54758414137E-01
  1.56736214214E-01  1.58738891953E-01  1.60766760277E-01  1.62820136045E-01
  1.64899340100E-01  1.67004697323E-01  1.69136536679E-01  1.71295191274E-01
  1.73480998400E-01  1.75694299596E-01  1.77935440694E-01  1.80204771876E-01
  1.82502647731E-01  1.84829427305E-01  1.87185474164E-01  1.89571156444E-01
  1.91986846913E-01  1.94432923028E-01  1.96909766992E-01  1.99417765818E-01
  2.01957311386E-01  2.04528800504E-01  2.07132634974E-01  2.09769221650E-01
  2.12438972503E-01  2.15142304689E-01  2.17879640607E-01  2.20651407972E-01
  2.23458039878E-01  2.26299974869E-01  2.29177657000E-01  2.32091535917E-01
  2.35042066919E-01  2.38029711032E-01  2.41054935081E-01  2.44118211765E-01
  2.47220019726E-01  2.50360843628E-01  2.53541174231E-01  2.56761508469E-01
  2.60022349525E-01  2.63324206912E-01  2.66667596553E-01  2.70053040857E-01
  2.73481068809E-01  2.76952216045E-01  2.80467024937E-01  2.84026044684E-01
  2.87629831387E-01  2.91278948147E-01  2.94973965145E-01  2.98715459736E-01
  3.02504016534E-01  3.06340227511E-01  3.10224692082E-01  3.14158017202E-01
  3.18140817462E-01  3.22173715182E-01  3.26257340510E-01  3.30392331521E-01
  3.34579334317E-01  3.38819003124E-01  3.43112000400E-01  3.47458996934E-01
  3.51860671954E-01  3.56317713229E-01  3.60830817182E-01  3.65400688995E-01
  3.70028042718E-01  3.74713601386E-01  3.79458097127E-01  3.84262271278E-01
  3.89126874500E-01  3.94052666898E-01  3.99040418138E-01  4.04090907564E-01
  4.09204924327E-01  4.14383267502E-01  4.19626746215E-01  4.24936179772E-01
  4.30312397781E-01  4.35756240288E-01  4.41268557904E-01  4.46850211941E-01
  4.52502074542E-01  4.58225028822E-01  4.64019969006E-01  4.69887800564E-01
  4.75829440357E-01  4.81845816779E-01  4.87937869899E-01  4.94106551615E-01
  5.00352825794E-01  5.06677668431E-01  5.13082067794E-01  5.19567024584E-01
  5.26133552089E-01  5.32782676342E-01  5.39515436283E-01  5.46332883917E-01
  5.53236084487E-01  5.60226116630E-01  5.67304072554E-01  5.74471058204E-01
  5.81728193435E-01  5.89076612190E-01  5.96517462674E-01  6.04051907536E-01
  6.11681124047E-01  6.19406304288E-01  6.27228655335E-01  6.35149399445E-01
  6.43169774251E-01  6.51291032953E-01  6.59514444514E-01  6.67841293859E-01
  6.76272882075E-01  6.84810526614E-01  6.93455561502E-01  7.02209337542E-01
  7.11073222530E-01  7.20048601465E-01  7.29136876770E-01  7.38339468505E-01
  7.47657814594E-01  7.57093371048E-01  7.66647612192E-01  7.76322030895E-01
  7.86118138804E-01  7.96037466583E-01  8.06081564145E-01  8.16252000901E-01
  8.26550366004E-01  8.36978268593E-01  8.47537338049E-01  8.58229224248E-01
  8.69055597820E-01  8.80018150408E-01  8.91118594932E-01  9.02358665859E-01
  9.13740119474E-01  9.25264734152E-01  9.36934310637E-01  9.48750672324E-01
  9.60715665544E-01  9.72831159852E-01  9.85099048317E-01  9.97521247823E-01
  1.01009969936E+00  1.02283636835E+00  1.03573324491E+00  1.04879234420E+00
  1.06201570674E+00  1.07540539871E+00  1.08896351227E+00  1.10269216590E+00
  1.11659350474E+00  1.13066970089E+00  1.14492295380E+00  1.15935549055E+00
  1.17396956627E+00  1.18876746444E+00  1.20375149724E+00  1.21892400598E+00
  1.23428736139E+00  1.24984396402E+00  1.26559624461E+00  1.28154666451E+00
  1.29769771599E+00  1.31405192269E+00  1.33061183999E+00  1.34738005540E+00
  1.36435918900E+00  1.38155189380E+00  1.39896085622E+00  1.41658879642E+00
  1.43443846881E+00  1.45251266244E+00  1.47081420144E+00  1.48934594546E+00
  1.50811079013E+00  1.52711166749E+00  1.54635154646E+00  1.56583343331E+00
  1.58556037214E+00  1.60553544531E+00  1.62576177397E+00  1.64624251852E+00
  1.66698087913E+00  1.68798009620E+00  1.70924345091E+00  1.73077426569E+00
  1.75257590478E+00  1.77465177474E+00  1.79700532495E+00  1.81964004821E+00
  1.84255948125E+00  1.86576720526E+00  1.88926684650E+00  1.91306207684E+00
  1.93715661433E+00  1.96155422379E+00  1.98625871741E+00  2.01127395529E+00
  2.03660384614E+00  2.06225234779E+00  2.08822346788E+00  2.11452126444E+00
  2.14114984656E+00  2.16811337501E+00  2.19541606289E+00  2.22306217632E+00
  2.25105603504E+00  2.27940201315E+00  2.30810453978E+00  2.33716809975E+00
  2.36659723430E+00  2.39639654179E+00  2.42657067843E+00  2.45712435898E+00
  2.48806235752E+00  2.51938950818E+00  2.55111070589E+00  2.58323090714E+00
  2.61575513079E+00  2.64868845881E+00  2.68203603710E+00  2.71580307628E+00
  2.74999485254E+00  2.78461670839E+00  2.81967405358E+00  2.85517236589E+00
  2.89111719200E+00  2.92751414836E+00  2.96436892207E+00  3.00168727177E+00
  3.03947502852E+00  3.07773809674E+00  3.11648245511E+00  3.15571415751E+00
  3.19543933398E+00  3.23566419166E+00  3.27639501576E+00  3.31763817056E+00
  3.35940010038E+00  3.40168733061E+00  3.44450646872E+00  3.48786420529E+00
  3.53176731504E+00  3.57622265792E+00  3.62123718019E+00  3.66681791544E+00
  3.71297198576E+00  3.75970660282E+00  3.80702906900E+00  3.85494677852E+00
  3.90346721863E+00  3.95259797074E+00  4.00234671164E+00  4.05272121467E+00
  4.10372935094E+00  4.15537909058E+00  4.20767850397E+00  4.26063576299E+00
  4.31425914233E+00  4.36855702075E+00  4.42353788241E+00  4.47921031816E+00
  4.53558302695E+00  4.59266481713E+00  4.65046460784E+00  4.70899143041E+00
  4.76825442979E+00  4.82826286593E+00  4.88902611528E+00  4.95055367222E+00
  5.01285515055E+00  5.07594028500E+00  5.13981893277E+00  5.20450107500E+00
  5.26999681843E+00  5.33631639690E+00  5.40347017296E+00  5.47146863955E+00
  5.54032242155E+00  5.61004227752E+00  5.68063910131E+00  5.75212392383E+00
  5.82450791472E+00  5.89780238414E+00  5.97201878449E+00  6.04716871224E+00
  6.12326390971E+00  6.20031626693E+00  6.27833782349E+00  6.35734077043E+00
  6.43733745210E+00  6.51834036815E+00  6.60036217546E+00  6.68341569010E+00
  6.76751388935E+00  6.85266991372E+00  6.93889706902E+00  7.02620882841E+00
  7.11461883454E+00  7.20414090164E+00  7.29478901773E+00  7.38657734675E+00
  7.47952023083E+00  7.57363219246E+00  7.66892793684E+00  7.76542235413E+00
  7.86313052177E+00  7.96206770686E+00  8.06224936854E+00  8.16369116039E+00
  8.26640893291E+00  8.37041873595E+00  8.47573682126E+00  8.58237964500E+00
  8.69036387033E+00  8.79970637001E+00  8.91042422902E+00  9.02253474726E+00
  9.13605544221E+00  9.25100405173E+00  9.36739853676E+00  9.48525708418E+00
  9.60459810963E+00  9.72544026038E+00  9.84780241827E+00  9.97170370264E+00
  1.00971634733E+01  1.02242013336E+01  1.03528371335E+01  1.04830909726E+01
  1.06149832032E+01  1.07485344339E+01  1.08837655323E+01  1.10206976285E+01
  1.11593521184E+01  1.12997506671E+01  1.14419152122E+01  1.15858679670E+01
  1.17316314247E+01  1.18792283609E+01  1.20286818381E+01  1.21800152085E+01
  1.23332521185E+01  1.24884165114E+01  1.26455326322E+01  1.28046250305E+01
  1.29657185648E+01  1.31288384063E+01  1.32940100429E+01  1.34612592828E+01
  1.36306122593E+01  1.38020954339E+01  1.39757356013E+01  1.41515598932E+01
  1.43295957824E+01  1.45098710874E+01  1.46924139766E+01  1.48772529727E+01
  1.50644169571E+01  1.52539351747E+01  1.54458372379E+01  1.56401531320E+01
  1.58369132191E+01  1.60361482435E+01  1.62378893359E+01  1.64421680189E+01
  1.66490162114E+01  1.68584662339E+01  1.70705508133E+01  1.72853030884E+01
  1.75027566145E+01  1.77229453693E+01  1.79459037576E+01  1.81716666173E+01
  1.84002692241E+01  1.86317472977E+01  1.88661370071E+01  1.91034749761E+01
  1.93437982892E+01  1.95871444974E+01  1.98335516242E+01  2.00830581710E+01
  2.03357031239E+01  2.05915259590E+01  2.08505666493E+01  2.11128656704E+01
  2.13784640069E+01  2.16474031593E+01  2.19197251498E+01  2.21954725293E+01
  2.24746883838E+01  2.27574163414E+01  2.30437005789E+01  2.33335858288E+01
  2.36271173862E+01  2.39243411162E+01  2.42253034604E+01  2.45300514449E+01
  2.48386326872E+01  2.51510954036E+01  2.54674884172E+01  2.57878611650E+01
  2.61122637059E+01  2.64407467284E+01  2.67733615587E+01  2.71101601685E+01
  2.74511951833E+01  2.77965198905E+01  2.81461882478E+01  2.85002548916E+01
  2.88587751455E+01  2.92218050291E+01  2.95894012664E+01  2.99616212952E+01
  3.03385232756E+01  3.07201660993E+01  3.11066093988E+01  3.14979135566E+01
  3.18941397147E+01  3.22953497844E+01  3.27016064555E+01  3.31129732065E+01
  3.35295143142E+01  3.39512948641E+01  3.43783807601E+01  3.48108387354E+01
  3.52487363624E+01  3.56921420635E+01  3.61411251217E+01  3.65957556915E+01
  3.70561048099E+01  3.75222444074E+01  3.79942473193E+01  3.84721872969E+01
  3.89561390193E+01  3.94461781050E+01  3.99423811236E+01  4.04448256079E+01
  4.09535900657E+01  4.14687539927E+01  4.19903978841E+01  4.25186032479E+01
  4.30534526173E+01  4.35950295635E+01  4.41434187092E+01  4.46987057411E+01
  4.52609774241E+01  4.58303216142E+01  4.64068272725E+01  4.69905844794E+01
  4.75816844480E+01  4.81802195389E+01  4.87862832745E+01  4.93999703534E+01
  5.00213766654E+01  5.06505993067E+01  5.12877365944E+01  5.19328880827E+01
  5.25861545776E+01  5.32476381536E+01  5.39174421686E+01  5.45956712810E+01
  5.52824314654E+01  5.59778300295E+01  5.66819756307E+01  5.73949782933E+01
  5.81169494253E+01  5.88480018362E+01  5.95882497544E+01  6.03378088452E+01
  6.10967962287E+01  6.18653304982E+01  6.26435317388E+01  6.34315215459E+01
  6.42294230447E+01  6.50373609088E+01  6.58554613802E+01  6.66838522887E+01
  6.75226630722E+01  6.83720247964E+01  6.92320701759E+01  7.01029335945E+01
  7.09847511265E+01  7.18776605575E+01  7.27818014065E+01  7.36973149474E+01
  7.46243442310E+01  7.55630341076E+01  7.65135312492E+01  7.74759841731E+01
  7.84505432644E+01  7.94373608001E+01  8.04365909723E+01  8.14483899128E+01
  8.24729157172E+01  8.35103284699E+01  8.45607902685E+01  8.56244652500E+01
  8.67015196157E+01  8.77921216576E+01  8.88964417844E+01  9.00146525483E+01
  9.11469286722E+01  9.22934470765E+01  9.34543869069E+01  9.46299295627E+01
  9.58202587249E+01  9.70255603848E+01  9.82460228731E+01  9.94818368898E+01
  1.00733195533E+02  1.02000294331E+02  1.03283331269E+02  1.04582506825E+02
  1.05898023998E+02  1.07230088340E+02  1.08578907989E+02  1.09944693700E+02
  1.11327658881E+02  1.12728019622E+02  1.14145994733E+02  1.15581805775E+02
  1.17035677097E+02  1.18507835869E+02  1.19998512118E+02
  </PP_R>
  <PP_RAB>
  3.13741380100E-05  3.17687760846E-05  3.21683780951E-05  3.25730064801E-05
  3.29827244636E-05  3.33975960650E-05  3.38176861087E-05  3.42430602346E-05
  3.46737849084E-05  3.51099274316E-05  3.55515559524E-05  3.59987394761E-05
  3.64515478761E-05  3.69100519047E-05  3.73743232039E-05  3.78444343172E-05
  3.83204587003E-05  3.88024707331E-05  3.92905457309E-05  3.97847599564E-05
  4.02851906315E-05  4.07919159497E-05  4.13050150877E-05  4.18245682184E-05
  4.23506565229E-05  4.28833622037E-05  4.34227684971E-05  4.39689596864E-05
  4.45220211151E-05  4.50820392002E-05  4.56491014456E-05  4.62232964560E-05
  4.68047139506E-05  4.73934447769E-05  4.79895809253E-05  4.85932155435E-05
  4.92044429504E-05  4.98233586516E-05  5.04500593540E-05  5.10846429808E-05
  5.17272086870E-05  5.23778568748E-05  5.30366892093E-05  5.37038086344E-05
  5.43793193889E-05  5.50633270226E-05  5.57559384132E-05  5.64572617827E-05
  5.71674067141E-05  5.78864841692E-05  5.86146065051E-05  5.93518874926E-05
  6.00984423333E-05  6.08543876779E-05  6.16198416443E-05  6.23949238364E-05
  6.31797553622E-05  6.39744588534E-05  6.47791584839E-05  6.55939799898E-05
  6.64190506884E-05  6.72544994989E-05  6.81004569617E-05  6.89570552595E-05
  6.98244282375E-05  7.07027114244E-05  7.15920420539E-05  7.24925590855E-05
  7.34044032270E-05  7.43277169559E-05  7.52626445418E-05  7.62093320689E-05
  7.71679274593E-05  7.81385804954E-05  7.91214428436E-05  8.01166680782E-05
  8.11244117052E-05  8.21448311866E-05  8.31780859650E-05  8.42243374886E-05
  8.52837492362E-05  8.63564867432E-05  8.74427176269E-05  8.85426116132E-05
  8.96563405626E-05  9.07840784977E-05  9.19260016297E-05  9.30822883866E-05
  9.42531194403E-05  9.54386777357E-05  9.66391485188E-05  9.78547193653E-05
  9.90855802109E-05  1.00331923380E-04  1.01593943616E-04  1.02871838113E-04
  1.04165806543E-04  1.05476051093E-04  1.06802776491E-04  1.08146190039E-04
  1.09506501650E-04  1.10883923874E-04  1.12278671937E-04  1.13690963771E-04
  1.15121020050E-04  1.16569064222E-04  1.18035322547E-04  1.19520024132E-04
  1.21023400963E-04  1.22545687948E-04  1.24087122945E-04  1.25647946808E-04
  1.27228403418E-04  1.28828739725E-04  1.30449205785E-04  1.32090054798E-04
  1.33751543151E-04  1.35433930455E-04  1.37137479587E-04  1.38862456728E-04
  1.40609131411E-04  1.42377776556E-04  1.44168668519E-04  1.45982087130E-04
  1.47818315739E-04  1.49677641260E-04  1.51560354217E-04  1.53466748788E-04
  1.55397122851E-04  1.57351778030E-04  1.59331019745E-04  1.61335157256E-04
  1.63364503713E-04  1.65419376207E-04  1.67500095814E-04  1.69606987653E-04
  1.71740380928E-04  1.73900608987E-04  1.76088009370E-04  1.78302923862E-04
  1.80545698550E-04  1.82816683870E-04  1.85116234669E-04  1.87444710256E-04
  1.89802474460E-04  1.92189895688E-04  1.94607346977E-04  1.97055206061E-04
  1.99533855421E-04  2.02043682352E-04  2.04585079020E-04  2.07158442522E-04
  2.09764174953E-04  2.12402683462E-04  2.15074380323E-04  2.17779682994E-04
  2.20519014183E-04  2.23292801916E-04  2.26101479605E-04  2.28945486109E-04
  2.31825265812E-04  2.34741268684E-04  2.37693950356E-04  2.40683772192E-04
  2.43711201357E-04  2.46776710894E-04  2.49880779793E-04  2.53023893073E-04
  2.56206541850E-04  2.59429223421E-04  2.62692441336E-04  2.65996705480E-04
  2.69342532150E-04  2.72730444138E-04  2.76160970813E-04  2.79634648202E-04
  2.83152019074E-04  2.86713633024E-04  2.90320046563E-04  2.93971823200E-04
  2.97669533533E-04  3.01413755335E-04  3.05205073650E-04  3.09044080879E-04
  3.12931376875E-04  3.16867569034E-04  3.20853272396E-04  3.24889109734E-04
  3.28975711657E-04  3.33113716704E-04  3.37303771448E-04  3.41546530591E-04
  3.45842657075E-04  3.50192822178E-04  3.54597705621E-04  3.59057995678E-04
  3.63574389277E-04  3.68147592114E-04  3.72778318761E-04  3.77467292779E-04
  3.82215246829E-04  3.87022922790E-04  3.91891071869E-04  3.96820454726E-04
  4.01811841586E-04  4.06866012364E-04  4.11983756784E-04  4.17165874504E-04
  4.22413175241E-04  4.27726478896E-04  4.33106615683E-04  4.38554426261E-04
  4.44070761859E-04  4.49656484418E-04  4.55312466717E-04  4.61039592516E-04
  4.66838756688E-04  4.72710865367E-04  4.78656836079E-04  4.84677597897E-04
  4.90774091574E-04  4.96947269703E-04  5.03198096853E-04  5.09527549730E-04
  5.15936617322E-04  5.22426301061E-04  5.28997614973E-04  5.35651585838E-04
  5.42389253353E-04  5.49211670293E-04  5.56119902673E-04  5.63115029919E-04
  5.70198145035E-04  5.77370354771E-04  5.84632779799E-04  5.91986554889E-04
  5.99432829083E-04  6.06972765875E-04  6.14607543397E-04  6.22338354598E-04
  6.30166407433E-04  6.38092925052E-04  6.46119145988E-04  6.54246324355E-04
  6.62475730042E-04  6.70808648909E-04  6.79246382992E-04  6.87790250705E-04
  6.96441587044E-04  7.05201743797E-04  7.14072089758E-04  7.23054010935E-04
  7.32148910773E-04  7.41358210368E-04  7.50683348691E-04  7.60125782815E-04
  7.69686988139E-04  7.79368458621E-04  7.89171707010E-04  7.99098265084E-04
  8.09149683887E-04  8.19327533975E-04  8.29633405657E-04  8.40068909247E-04
  8.50635675313E-04  8.61335354933E-04  8.72169619956E-04  8.83140163255E-04
  8.94248699002E-04  9.05496962928E-04  9.16886712597E-04  9.28419727679E-04
  9.40097810233E-04  9.51922784983E-04  9.63896499604E-04  9.76020825014E-04
  9.88297655665E-04  1.00072890983E-03  1.01331652993E-03  1.02606248280E-03
  1.03896876002E-03  1.05203737822E-03  1.06527037940E-03  1.07866983124E-03
  1.09223782744E-03  1.10597648803E-03  1.11988795969E-03  1.13397441612E-03
  1.14823805836E-03  1.16268111513E-03  1.17730584320E-03  1.19211452769E-03
  1.20710948251E-03  1.22229305064E-03  1.23766760455E-03  1.25323554654E-03
  1.26899930913E-03  1.28496135544E-03  1.30112417958E-03  1.31749030702E-03
  1.33406229501E-03  1.35084273294E-03  1.36783424279E-03  1.38503947953E-03
  1.40246113150E-03  1.42010192088E-03  1.43796460408E-03  1.45605197217E-03
  1.47436685134E-03  1.49291210333E-03  1.51169062588E-03  1.53070535316E-03
  1.54995925627E-03  1.56945534366E-03  1.58919666165E-03  1.60918629485E-03
  1.62942736668E-03  1.64992303985E-03  1.67067651685E-03  1.69169104046E-03
  1.71296989423E-03  1.73451640304E-03  1.75633393356E-03  1.77842589483E-03
  1.80079573877E-03  1.82344696070E-03  1.84638309993E-03  1.86960774028E-03
  1.89312451064E-03  1.91693708556E-03  1.94104918580E-03  1.96546457892E-03
  1.99018707988E-03  2.01522055162E-03  2.04056890567E-03  2.06623610277E-03
  2.09222615346E-03  2.11854311874E-03  2.14519111070E-03  2.17217429313E-03
  2.19949688221E-03  2.22716314716E-03  2.25517741088E-03  2.28354405066E-03
  2.31226749884E-03  2.34135224352E-03  2.37080282926E-03  2.40062385776E-03
  2.43081998862E-03  2.46139594005E-03  2.49235648961E-03  2.52370647493E-03
  2.55545079453E-03  2.58759440851E-03  2.62014233939E-03  2.65309967283E-03
  2.68647155850E-03  2.72026321082E-03  2.75447990979E-03  2.78912700186E-03
  2.82420990069E-03  2.85973408807E-03  2.89570511471E-03  2.93212860117E-03
  2.96901023869E-03  3.00635579010E-03  3.04417109072E-03  3.08246204927E-03
  3.12123464878E-03  3.16049494756E-03  3.20024908010E-03  3.24050325807E-03
  3.28126377127E-03  3.32253698861E-03  3.36432935911E-03  3.40664741293E-03
  3.44949776232E-03  3.49288710277E-03  3.53682221393E-03  3.58130996075E-03
  3.62635729455E-03  3.67197125404E-03  3.71815896652E-03  3.76492764890E-03
  3.81228460889E-03  3.86023724610E-03  3.90879305324E-03  3.95795961724E-03
  4.00774462048E-03  4.05815584198E-03  4.10920115858E-03  4.16088854623E-03
  4.21322608117E-03  4.26622194126E-03  4.31988440721E-03  4.37422186389E-03
  4.42924280163E-03  4.48495581757E-03  4.54136961699E-03  4.59849301464E-03
  4.65633493619E-03  4.71490441954E-03  4.77421061630E-03  4.83426279318E-03
  4.89507033346E-03  4.95664273844E-03  5.01898962893E-03  5.08212074676E-03
  5.14604595629E-03  5.21077524598E-03  5.27631872990E-03  5.34268664936E-03
  5.40988937447E-03  5.47793740581E-03  5.54684137601E-03  5.61661205147E-03
  5.68726033398E-03  5.75879726249E-03  5.83123401479E-03  5.90458190926E-03
  5.97885240668E-03  6.05405711194E-03  6.13020777595E-03  6.20731629739E-03
  6.28539472464E-03  6.36445525759E-03  6.44451024963E-03  6.52557220951E-03
  6.60765380332E-03  6.69076785649E-03  6.77492735574E-03  6.86014545118E-03
  6.94643545829E-03  7.03381086009E-03  7.12228530914E-03  7.21187262976E-03
  7.30258682015E-03  7.39444205459E-03  7.48745268564E-03  7.58163324641E-03
  7.67699845280E-03  7.77356320581E-03  7.87134259390E-03  7.97035189527E-03
  8.07060658035E-03  8.17212231412E-03  8.27491495864E-03  8.37900057545E-03
  8.48439542814E-03  8.59111598489E-03  8.69917892098E-03  8.80860112148E-03
  8.91939968383E-03  9.03159192053E-03  9.14519536183E-03  9.26022775852E-03
  9.37670708464E-03  9.49465154031E-03  9.61407955461E-03  9.73500978839E-03
  9.85746113726E-03  9.98145273449E-03  1.01070039540E-02  1.02341344135E-02
  1.03628639773E-02  1.04932127596E-02  1.06252011278E-02  1.07588497053E-02
  1.08941793750E-02  1.10312112823E-02  1.11699668389E-02  1.13104677254E-02
  1.14527358956E-02  1.15967935791E-02  1.17426632852E-02  1.18903678063E-02
  1.20399302215E-02  1.21913739004E-02  1.23447225062E-02  1.25000000000E-02
  1.26572306443E-02  1.28164390066E-02  1.29776499635E-02  1.31408887047E-02
  1.33061807365E-02  1.34735518861E-02  1.36430283055E-02  1.38146364759E-02
  1.39884032114E-02  1.41643556633E-02  1.43425213247E-02  1.45229280341E-02
  1.47056039806E-02  1.48905777077E-02  1.50778781178E-02  1.52675344770E-02
  1.54595764196E-02  1.56540339524E-02  1.58509374599E-02  1.60503177086E-02
  1.62522058521E-02  1.64566334358E-02  1.66636324020E-02  1.68732350947E-02
  1.70854742647E-02  1.73003830748E-02  1.75179951049E-02  1.77383443574E-02
  1.79614652623E-02  1.81873926827E-02  1.84161619202E-02  1.86478087205E-02
  1.88823692788E-02  1.91198802458E-02  1.93603787329E-02  1.96039023186E-02
  1.98504890539E-02  2.01001774686E-02  2.03530065768E-02  2.06090158838E-02
  2.08682453913E-02  2.11307356047E-02  2.13965275386E-02  2.16656627233E-02
  2.19381832120E-02  2.22141315864E-02  2.24935509641E-02  2.27764850049E-02
  2.30629779178E-02  2.33530744679E-02  2.36468199834E-02  2.39442603627E-02
  2.42454420813E-02  2.45504121996E-02  2.48592183698E-02  2.51719088434E-02
  2.54885324790E-02  2.58091387496E-02  2.61337777506E-02  2.64625002077E-02
  2.67953574842E-02  2.71324015898E-02  2.74736851884E-02  2.78192616062E-02
  2.81691848402E-02  2.85235095666E-02  2.88822911495E-02  2.92455856491E-02
  2.96134498309E-02  2.99859411746E-02  3.03631178826E-02  3.07450388895E-02
  3.11317638712E-02  3.15233532545E-02  3.19198682258E-02  3.23213707414E-02
  3.27279235370E-02  3.31395901373E-02  3.35564348659E-02  3.39785228557E-02
  3.44059200589E-02  3.48386932571E-02  3.52769100719E-02  3.57206389758E-02
  3.61699493021E-02  3.66249112567E-02  3.70855959281E-02  3.75520752993E-02
  3.80244222587E-02  3.85027106115E-02  3.89870150911E-02  3.94774113711E-02
  3.99739760770E-02  4.04767867980E-02  4.09859220992E-02  4.15014615342E-02
  4.20234856570E-02  4.25520760349E-02  4.30873152612E-02  4.36292869683E-02
  4.41780758402E-02  4.47337676263E-02  4.52964491546E-02  4.58662083452E-02
  4.64431342243E-02  4.70273169375E-02  4.76188477647E-02  4.82178191337E-02
  4.88243246351E-02  4.94384590365E-02  5.00603182977E-02  5.06899995856E-02
  5.13276012889E-02  5.19732230345E-02  5.26269657018E-02  5.32889314396E-02
  5.39592236814E-02  5.46379471616E-02  5.53252079323E-02  5.60211133792E-02
  5.67257722391E-02  5.74392946163E-02  5.81617920002E-02  5.88933772824E-02
  5.96341647746E-02  6.03842702264E-02  6.11438108432E-02  6.19129053049E-02
  6.26916737841E-02  6.34802379648E-02  6.42787210618E-02  6.50872478397E-02
  6.59059446326E-02  6.67349393634E-02  6.75743615643E-02  6.84243423966E-02
  6.92850146716E-02  7.01565128712E-02  7.10389731686E-02  7.19325334501E-02
  7.28373333363E-02  7.37535142040E-02  7.46812192084E-02  7.56205933052E-02
  7.65717832735E-02  7.75349377388E-02  7.85102071959E-02  7.94977440325E-02
  8.04977025534E-02  8.15102390041E-02  8.25355115955E-02  8.35736805285E-02
  8.46249080191E-02  8.56893583237E-02  8.67671977650E-02  8.78585947574E-02
  8.89637198339E-02  9.00827456728E-02  9.12158471238E-02  9.23632012366E-02
  9.35249872875E-02  9.47013868080E-02  9.58925836128E-02  9.70987638288E-02